
     Program PWSCF v.6.6 starts on  1May2021 at  0:22: 8 

     This program is part of the open-source Quantum ESPRESSO suite
     for quantum simulation of materials; please cite
         "P. Giannozzi et al., J. Phys.:Condens. Matter 21 395502 (2009);
         "P. Giannozzi et al., J. Phys.:Condens. Matter 29 465901 (2017);
          URL http://www.quantum-espresso.org", 
     in publications or presentations arising from this work. More details at
     http://www.quantum-espresso.org/quote

     Parallel version (MPI), running on    32 processors

     MPI processes distributed on     1 nodes
     R & G space division:  proc/nbgrp/npool/nimage =      32
     Fft bands division:     nmany     =       1
     Waiting for input...
     Reading input from standard input

     Current dimensions of program PWSCF are:
     Max number of different atomic species (ntypx) = 10
     Max number of k-points (npk) =  40000
     Max angular momentum in pseudopotentials (lmaxx) =  3
     Message from routine emend_upf/check:
     BEWARE !!! Possible out of bounds while fixing pseudo
     Message from routine emend_upf/check:
     BEWARE !!! Possible out of bounds while fixing pseudo
     Message from routine read_upf:
     Pseudo file Se.pbe-n-kjpaw_psl.1.0.0.UPF has been fixed on the fly.
     To avoid this message in the future, permanently fix 
     your pseudo files following these instructions: 
     https://gitlab.com/QEF/q-e/blob/master/upftools/how_to_fix_upf.md
     file Se.pbe-n-kjpaw_psl.1.0.0.UPF: wavefunction(s)  4S renormalized

     Subspace diagonalization in iterative solution of the eigenvalue problem:
     a serial algorithm will be used

     Message from routine setup:
     using ibrav=0 with symmetry is DISCOURAGED, use correct ibrav instead
 
     Parallelization info
     --------------------
     sticks:   dense  smooth     PW     G-vecs:    dense   smooth      PW
     Min          37      36     10                 4765     4480     688
     Max          38      37     11                 4790     4498     707
     Sum        1201    1155    331               152811   143721   22275
 


     bravais-lattice index     =            0
     lattice parameter (alat)  =       7.3283  a.u.
     unit-cell volume          =    2290.4745 (a.u.)^3
     number of atoms/cell      =            4
     number of atomic types    =            2
     number of electrons       =        20.00
     number of Kohn-Sham states=           14
     kinetic-energy cutoff     =      60.0000  Ry
     charge density cutoff     =     250.0000  Ry
     convergence threshold     =      1.0E-08
     mixing beta               =       0.7000
     number of iterations used =            8  plain     mixing
     Exchange-correlation= SLA PW PBX PBC
                           (   1   4   3   4   0   0   0)
     nstep                     =          100


     celldm(1)=   7.328263  celldm(2)=   0.000000  celldm(3)=   0.000000
     celldm(4)=   0.000000  celldm(5)=   0.000000  celldm(6)=   0.000000

     crystal axes: (cart. coord. in units of alat)
               a(1) = (   1.099680   0.000000   0.000000 )  
               a(2) = (   0.000000   1.026184   0.000000 )  
               a(3) = (   0.000000   0.000000   5.157400 )  

     reciprocal axes: (cart. coord. in units 2 pi/alat)
               b(1) = (  0.909356  0.000000  0.000000 )  
               b(2) = (  0.000000  0.974484  0.000000 )  
               b(3) = (  0.000000  0.000000  0.193896 )  


     PseudoPot. # 1 for Ge read from file:
     /ibex/scratch/jangira/qe/pseudo/Ge.pbe-n-kjpaw_psl.1.0.0.UPF
     MD5 check sum: 86cd6a1ce4ead6fa7a4673d64b86017a
     Pseudo is Projector augmented-wave + core cor, Zval =  4.0
     Generated using "atomic" code by A. Dal Corso v.6.3
     Shape of augmentation charge: PSQ
     Using radial grid of 1207 points,  4 beta functions with: 
                l(1) =   0
                l(2) =   0
                l(3) =   1
                l(4) =   1
     Q(r) pseudized with 0 coefficients 


     PseudoPot. # 2 for Se read from file:
     /ibex/scratch/jangira/qe/pseudo/Se.pbe-n-kjpaw_psl.1.0.0.UPF
     MD5 check sum: a24196f260b4188fa853fb27ef2f7c98
     Pseudo is Projector augmented-wave + core cor, Zval =  6.0
     Generated using "atomic" code by A. Dal Corso v.5.1.2
     Shape of augmentation charge: PSQ
     Using radial grid of 1211 points,  4 beta functions with: 
                l(1) =   0
                l(2) =   0
                l(3) =   1
                l(4) =   1
     Q(r) pseudized with 0 coefficients 


     atomic species   valence    mass     pseudopotential
        Ge             4.00    72.61000     Ge( 1.00)
        Se             6.00    78.96000     Se( 1.00)

      2 Sym. Ops. (no inversion) found ( 1 have fractional translation)



   Cartesian axes

     site n.     atom                  positions (alat units)
         1           Ge  tau(   1) = (   0.1080303   0.2565460   2.2060108  )
         2           Ge  tau(   2) = (   0.6578548   0.7696380   2.8279365  )
         3           Se  tau(   3) = (   0.5657830   0.7696380   2.1790273  )
         4           Se  tau(   4) = (   0.0159410   0.2565460   2.8549149  )

     number of k points=    25  Gaussian smearing, width (Ry)=  0.0200
                       cart. coord. in units 2pi/alat
        k(    1) = (   0.0000000   0.0000000   0.0000000), wk =   0.0312500
        k(    2) = (   0.0000000   0.1218105   0.0000000), wk =   0.0625000
        k(    3) = (   0.0000000   0.2436210   0.0000000), wk =   0.0625000
        k(    4) = (   0.0000000   0.3654315   0.0000000), wk =   0.0625000
        k(    5) = (   0.0000000  -0.4872421   0.0000000), wk =   0.0312500
        k(    6) = (   0.1136695   0.0000000   0.0000000), wk =   0.0625000
        k(    7) = (   0.1136695   0.1218105   0.0000000), wk =   0.1250000
        k(    8) = (   0.1136695   0.2436210   0.0000000), wk =   0.1250000
        k(    9) = (   0.1136695   0.3654315   0.0000000), wk =   0.1250000
        k(   10) = (   0.1136695  -0.4872421   0.0000000), wk =   0.0625000
        k(   11) = (   0.2273389   0.0000000   0.0000000), wk =   0.0625000
        k(   12) = (   0.2273389   0.1218105   0.0000000), wk =   0.1250000
        k(   13) = (   0.2273389   0.2436210   0.0000000), wk =   0.1250000
        k(   14) = (   0.2273389   0.3654315   0.0000000), wk =   0.1250000
        k(   15) = (   0.2273389  -0.4872421   0.0000000), wk =   0.0625000
        k(   16) = (   0.3410084   0.0000000   0.0000000), wk =   0.0625000
        k(   17) = (   0.3410084   0.1218105   0.0000000), wk =   0.1250000
        k(   18) = (   0.3410084   0.2436210   0.0000000), wk =   0.1250000
        k(   19) = (   0.3410084   0.3654315   0.0000000), wk =   0.1250000
        k(   20) = (   0.3410084  -0.4872421   0.0000000), wk =   0.0625000
        k(   21) = (  -0.4546779   0.0000000   0.0000000), wk =   0.0312500
        k(   22) = (  -0.4546779   0.1218105   0.0000000), wk =   0.0625000
        k(   23) = (  -0.4546779   0.2436210   0.0000000), wk =   0.0625000
        k(   24) = (  -0.4546779   0.3654315   0.0000000), wk =   0.0625000
        k(   25) = (  -0.4546779  -0.4872421   0.0000000), wk =   0.0312500

     Dense  grid:   152811 G-vectors     FFT dimensions: (  45,  40, 192)

     Smooth grid:   143721 G-vectors     FFT dimensions: (  40,  40, 192)

     Estimated max dynamical RAM per process >      11.36 MB

     Estimated total dynamical RAM >     363.62 MB

     Initial potential from superposition of free atoms

     starting charge   19.99832, renormalised to   20.00000

     negative rho (up, down):  1.555E-04 0.000E+00
     Starting wfcs are   16 randomized atomic wfcs
     Checking if some PAW data can be deallocated... 

     total cpu time spent up to now is        3.1 secs

     Self-consistent Calculation

     iteration #  1     ecut=    60.00 Ry     beta= 0.70
     Davidson diagonalization with overlap
     ethr =  1.00E-02,  avg # of iterations =  2.2

     Threshold (ethr) on eigenvalues was too large:
     Diagonalizing with lowered threshold

     Davidson diagonalization with overlap
     ethr =  3.88E-04,  avg # of iterations =  2.1

     negative rho (up, down):  1.771E-04 0.000E+00

     total cpu time spent up to now is        4.8 secs

     total energy              =    -706.92233549 Ry
     estimated scf accuracy    <       0.07512223 Ry

     iteration #  2     ecut=    60.00 Ry     beta= 0.70
     Davidson diagonalization with overlap
     ethr =  3.76E-04,  avg # of iterations =  2.2

     negative rho (up, down):  1.823E-04 0.000E+00

     total cpu time spent up to now is        5.4 secs

     total energy              =    -706.93784918 Ry
     estimated scf accuracy    <       0.04552878 Ry

     iteration #  3     ecut=    60.00 Ry     beta= 0.70
     Davidson diagonalization with overlap
     ethr =  2.28E-04,  avg # of iterations =  2.0

     negative rho (up, down):  1.936E-04 0.000E+00

     total cpu time spent up to now is        5.9 secs

     total energy              =    -706.94754340 Ry
     estimated scf accuracy    <       0.00066649 Ry

     iteration #  4     ecut=    60.00 Ry     beta= 0.70
     Davidson diagonalization with overlap
     ethr =  3.33E-06,  avg # of iterations =  5.5

     negative rho (up, down):  1.967E-04 0.000E+00

     total cpu time spent up to now is        6.7 secs

     total energy              =    -706.94764995 Ry
     estimated scf accuracy    <       0.00010957 Ry

     iteration #  5     ecut=    60.00 Ry     beta= 0.70
     Davidson diagonalization with overlap
     ethr =  5.48E-07,  avg # of iterations =  2.3

     negative rho (up, down):  1.971E-04 0.000E+00

     total cpu time spent up to now is        7.2 secs

     total energy              =    -706.94766242 Ry
     estimated scf accuracy    <       0.00004193 Ry

     iteration #  6     ecut=    60.00 Ry     beta= 0.70
     Davidson diagonalization with overlap
     ethr =  2.10E-07,  avg # of iterations =  2.0

     negative rho (up, down):  1.973E-04 0.000E+00

     total cpu time spent up to now is        7.7 secs

     total energy              =    -706.94766955 Ry
     estimated scf accuracy    <       0.00000941 Ry

     iteration #  7     ecut=    60.00 Ry     beta= 0.70
     Davidson diagonalization with overlap
     ethr =  4.70E-08,  avg # of iterations =  2.0

     negative rho (up, down):  1.974E-04 0.000E+00

     total cpu time spent up to now is        8.2 secs

     total energy              =    -706.94767114 Ry
     estimated scf accuracy    <       0.00000031 Ry

     iteration #  8     ecut=    60.00 Ry     beta= 0.70
     Davidson diagonalization with overlap
     ethr =  1.53E-09,  avg # of iterations =  2.2

     negative rho (up, down):  1.975E-04 0.000E+00

     total cpu time spent up to now is        8.7 secs

     total energy              =    -706.94767120 Ry
     estimated scf accuracy    <       0.00000003 Ry

     iteration #  9     ecut=    60.00 Ry     beta= 0.70
     Davidson diagonalization with overlap
     ethr =  1.72E-10,  avg # of iterations =  2.2

     negative rho (up, down):  1.975E-04 0.000E+00

     total cpu time spent up to now is        9.4 secs

     End of self-consistent calculation

          k = 0.0000 0.0000 0.0000 ( 17973 PWs)   bands (ev):

   -15.7245 -14.4129  -8.9969  -7.6658  -5.5178  -5.0937  -4.8838  -3.4989
    -3.4973  -2.4589  -0.0510   1.1208   1.8052   2.4437

          k = 0.0000 0.1218 0.0000 ( 17955 PWs)   bands (ev):

   -15.6300 -14.3743  -9.2137  -7.9129  -5.5296  -5.0617  -4.7544  -3.6396
    -3.1014  -2.5043  -0.0335   1.4850   1.5422   1.8781

          k = 0.0000 0.2436 0.0000 ( 17983 PWs)   bands (ev):

   -15.3615 -14.3039  -9.6837  -8.5724  -5.3827  -4.8573  -4.4306  -3.5633
    -2.6902  -2.5827   0.0971   0.3885   0.9270   1.6311

          k = 0.0000 0.3654 0.0000 ( 17932 PWs)   bands (ev):

   -14.9725 -14.3324 -10.0126  -9.3421  -4.9970  -4.4804  -4.1103  -3.5299
    -2.8552  -2.1841  -0.4587   0.1452   0.3418   0.8746

          k = 0.0000-0.4872 0.0000 ( 17894 PWs)   bands (ev):

   -14.5762 -14.5761  -9.8975  -9.8975  -4.5231  -4.5231  -3.8091  -3.8090
    -2.4917  -2.4917  -0.2354  -0.2353   0.1670   0.1671

          k = 0.1137 0.0000 0.0000 ( 17996 PWs)   bands (ev):

   -15.6490 -14.4064  -9.2242  -7.9477  -5.5082  -4.8250  -4.7848  -3.4486
    -3.1299  -2.5655  -0.0252   1.2879   1.3875   1.9475

          k = 0.1137 0.1218 0.0000 ( 17975 PWs)   bands (ev):

   -15.5566 -14.3686  -9.3544  -8.1223  -5.4742  -5.4068  -4.1382  -3.9017
    -2.6108  -2.5616   0.0146   0.6292   1.4350   2.3087

          k = 0.1137 0.2436 0.0000 ( 17966 PWs)   bands (ev):

   -15.2952 -14.2982  -9.6828  -8.6406  -5.5997  -5.3254  -4.0529  -3.7377
    -2.5403  -2.4846   0.0268   0.1311   0.7440   1.9325

          k = 0.1137 0.3654 0.0000 ( 17958 PWs)   bands (ev):

   -14.9198 -14.3189  -9.9401  -9.3139  -5.3175  -4.9902  -4.0398  -3.8569
    -2.8603  -2.4568  -0.2040   0.2343   0.6906   1.0514

          k = 0.1137-0.4872 0.0000 ( 17922 PWs)   bands (ev):

   -14.5436 -14.5435  -9.8239  -9.8239  -4.8082  -4.8081  -4.2421  -4.2421
    -2.6775  -2.6774  -0.0967  -0.0967   1.2109   1.2109

          k = 0.2273 0.0000 0.0000 ( 18022 PWs)   bands (ev):

   -15.4346 -14.4202  -9.6520  -8.6022  -5.3301  -4.5002  -4.2509  -3.3511
    -2.8474  -2.3553   0.1364   0.4110   1.0700   1.3652

          k = 0.2273 0.1218 0.0000 ( 17978 PWs)   bands (ev):

   -15.3489 -14.3823  -9.6514  -8.6511  -5.4513  -5.2692  -4.0278  -3.6060
    -2.5498  -2.2173   0.0574   0.1912   0.6979   2.0186

          k = 0.2273 0.2436 0.0000 ( 17967 PWs)   bands (ev):

   -15.1094 -14.3061  -9.6891  -8.8618  -6.1385  -5.1803  -4.5978  -3.6062
    -3.0578  -2.1726  -0.0476   0.5645   0.7873   2.4025

          k = 0.2273 0.3654 0.0000 ( 17965 PWs)   bands (ev):

   -14.7761 -14.2974  -9.7475  -9.2593  -6.1795  -5.0731  -4.9041  -4.0097
    -3.6349  -2.6411   0.3492   1.0014   1.6169   1.9847

          k = 0.2273-0.4872 0.0000 ( 17988 PWs)   bands (ev):

   -14.4621 -14.4620  -9.6264  -9.6263  -5.6680  -5.6679  -4.5917  -4.5917
    -3.2849  -3.2848   1.0910   1.0911   1.6596   1.6596

          k = 0.3410 0.0000 0.0000 ( 17992 PWs)   bands (ev):

   -15.1212 -14.5326  -9.8987  -9.2904  -4.9419  -4.0776  -3.9938  -3.3604
    -2.8378  -1.6778  -0.4745   0.5014   0.5326   0.7725

          k = 0.3410 0.1218 0.0000 ( 18007 PWs)   bands (ev):

   -15.0473 -14.4884  -9.8304  -9.2545  -5.1389  -4.8922  -4.1552  -3.8311
    -2.3077  -2.1842  -0.0639   0.2548   0.6574   1.4116

          k = 0.3410 0.2436 0.0000 ( 17976 PWs)   bands (ev):

   -14.8463 -14.3865  -9.6669  -9.2010  -6.1676  -5.2078  -4.8166  -3.9601
    -3.4141  -2.5464   0.4937   1.0445   1.7778   2.0015

          k = 0.3410 0.3654 0.0000 ( 17993 PWs)   bands (ev):

   -14.5854 -14.3148  -9.5129  -9.2495  -6.5942  -5.8058  -5.1596  -4.4818
    -3.7398  -3.1349   1.0738   1.7663   2.0151   3.0933

          k = 0.3410-0.4872 0.0000 ( 18034 PWs)   bands (ev):

   -14.3761 -14.3760  -9.3895  -9.3894  -6.3428  -6.3428  -5.0979  -5.0979
    -3.4876  -3.4875   1.4384   1.4384   2.9521   2.9521

          k =-0.4547 0.0000 0.0000 ( 17960 PWs)   bands (ev):

   -14.7861 -14.7860  -9.7719  -9.7718  -4.4258  -4.4257  -3.6322  -3.6320
    -2.1232  -2.1231  -0.1050  -0.1049   0.5618   0.5620

          k =-0.4547 0.1218 0.0000 ( 18006 PWs)   bands (ev):

   -14.7279 -14.7277  -9.6972  -9.6971  -4.6490  -4.6489  -4.3302  -4.3301
    -2.1853  -2.1852   0.0181   0.0182   1.2458   1.2459

          k =-0.4547 0.2436 0.0000 ( 17982 PWs)   bands (ev):

   -14.5781 -14.5780  -9.5112  -9.5112  -5.7691  -5.7690  -4.4445  -4.4445
    -3.1325  -3.1323   1.2300   1.2300   1.8233   1.8233

          k =-0.4547 0.3654 0.0000 ( 18016 PWs)   bands (ev):

   -14.4129 -14.4128  -9.3334  -9.3334  -6.4388  -6.4387  -4.9729  -4.9728
    -3.4939  -3.4938   1.4641   1.4641   3.1351   3.1352

          k =-0.4547-0.4872 0.0000 ( 18036 PWs)   bands (ev):

   -14.3390 -14.3389  -9.2741  -9.2740  -6.5891  -6.5891  -5.3484  -5.3484
    -3.5016  -3.5015   1.4888   1.4889   3.3770   3.3771

     the Fermi energy is    -1.0922 ev

!    total energy              =    -706.94767121 Ry

     total all-electron energy =    -18116.436011 Ry
     estimated scf accuracy    <          2.2E-09 Ry
     smearing contrib. (-TS)   =      -0.00000707 Ry
     internal energy E=F+TS    =    -706.94766413 Ry

     The total energy is F=E-TS. E is the sum of the following terms:
     one-electron contribution =    -289.33137177 Ry
     hartree contribution      =     149.65479303 Ry
     xc contribution           =     -25.84214510 Ry
     ewald contribution        =     102.94538857 Ry
     one-center paw contrib.   =    -644.37432886 Ry

     convergence has been achieved in   9 iterations

     negative rho (up, down):  1.975E-04 0.000E+00

     Forces acting on atoms (cartesian axes, Ry/au):

     atom    1 type  1   force =    -0.00000184    0.00000000   -0.00001299
     atom    2 type  1   force =     0.00000816    0.00000000    0.00001056
     atom    3 type  2   force =    -0.00000091    0.00000000   -0.00000635
     atom    4 type  2   force =    -0.00000542    0.00000000    0.00000877

     Total force =     0.000022     Total SCF correction =     0.000036
     SCF correction compared to forces is large: reduce conv_thr to get better values


     Computing stress (Cartesian axis) and pressure


     negative rho (up, down):  1.975E-04 0.000E+00
          total   stress  (Ry/bohr**3)                   (kbar)     P=       -0.02
  -0.00000012   0.00000000   0.00000000           -0.02        0.00        0.00
   0.00000000  -0.00000009   0.00000000            0.00       -0.01        0.00
   0.00000000   0.00000000  -0.00000011            0.00        0.00       -0.02


     BFGS Geometry Optimization

     number of scf cycles    =   1
     number of bfgs steps    =   0

     enthalpy new            =    -706.9476712079 Ry

     new trust radius        =       0.0000279770 bohr
     new conv_thr            =       0.0000000100 Ry

     new unit-cell volume =   2290.46289 a.u.^3 (   339.41158 Ang^3 )
     density =      1.48308 g/cm^3

CELL_PARAMETERS (alat=  7.32826342)
   1.099676448   0.000000000   0.000000000
   0.000000000   1.026181791   0.000000000
   0.000000000   0.000000000   5.157400000

ATOMIC_POSITIONS (crystal)
Ge            0.0982377719        0.2500000000        0.4277366564
Ge            0.5982250129        0.7500000000        0.5483262795
Se            0.5144978873        0.7500000000        0.4225048320
Se            0.0144953279        0.2500000000        0.5535572321



     Writing output data file ./out/pwscf.save/
     NEW-OLD atomic charge density approx. for the potential

     negative rho (up, down):  1.975E-04 0.000E+00
     extrapolated charge   19.99990, renormalised to   20.00000

     total cpu time spent up to now is       10.9 secs

     Self-consistent Calculation

     iteration #  1     ecut=    60.00 Ry     beta= 0.70
     Davidson diagonalization with overlap
     ethr =  1.00E-06,  avg # of iterations =  1.5

     Threshold (ethr) on eigenvalues was too large:
     Diagonalizing with lowered threshold

     Davidson diagonalization with overlap
     ethr =  8.57E-11,  avg # of iterations =  1.3

     negative rho (up, down):  1.975E-04 0.000E+00

     total cpu time spent up to now is       11.9 secs

     total energy              =    -706.94767120 Ry
     estimated scf accuracy    <       0.00000002 Ry

     iteration #  2     ecut=    60.00 Ry     beta= 0.70
     Davidson diagonalization with overlap
     ethr =  9.64E-11,  avg # of iterations =  2.6

     negative rho (up, down):  1.975E-04 0.000E+00

     total cpu time spent up to now is       12.6 secs

     total energy              =    -706.94767120 Ry
     estimated scf accuracy    <       0.00000009 Ry

     iteration #  3     ecut=    60.00 Ry     beta= 0.70
     Davidson diagonalization with overlap
     ethr =  9.64E-11,  avg # of iterations =  2.6

     negative rho (up, down):  1.975E-04 0.000E+00

     total cpu time spent up to now is       13.1 secs

     total energy              =    -706.94767121 Ry
     estimated scf accuracy    <       0.00000002 Ry

     iteration #  4     ecut=    60.00 Ry     beta= 0.70
     Davidson diagonalization with overlap
     ethr =  9.64E-11,  avg # of iterations =  1.7

     negative rho (up, down):  1.975E-04 0.000E+00

     total cpu time spent up to now is       14.0 secs

     End of self-consistent calculation

          k = 0.0000 0.0000 0.0000 ( 17973 PWs)   bands (ev):

   -15.7245 -14.4128  -8.9967  -7.6657  -5.5178  -5.0936  -4.8838  -3.4989
    -3.4972  -2.4588  -0.0509   1.1209   1.8053   2.4439

          k = 0.0000 0.1218 0.0000 ( 17955 PWs)   bands (ev):

   -15.6299 -14.3743  -9.2135  -7.9128  -5.5295  -5.0616  -4.7544  -3.6396
    -3.1013  -2.5042  -0.0334   1.4851   1.5423   1.8783

          k = 0.0000 0.2436 0.0000 ( 17983 PWs)   bands (ev):

   -15.3614 -14.3039  -9.6836  -8.5723  -5.3826  -4.8573  -4.4305  -3.5633
    -2.6901  -2.5826   0.0972   0.3886   0.9272   1.6312

          k = 0.0000 0.3654 0.0000 ( 17932 PWs)   bands (ev):

   -14.9725 -14.3323 -10.0125  -9.3420  -4.9969  -4.4803  -4.1102  -3.5298
    -2.8552  -2.1840  -0.4586   0.1453   0.3419   0.8747

          k = 0.0000-0.4872 0.0000 ( 17894 PWs)   bands (ev):

   -14.5761 -14.5761  -9.8975  -9.8974  -4.5231  -4.5230  -3.8090  -3.8090
    -2.4916  -2.4916  -0.2353  -0.2352   0.1671   0.1672

          k = 0.1137 0.0000 0.0000 ( 17996 PWs)   bands (ev):

   -15.6490 -14.4064  -9.2241  -7.9476  -5.5082  -4.8249  -4.7847  -3.4486
    -3.1298  -2.5654  -0.0251   1.2880   1.3876   1.9477

          k = 0.1137 0.1218 0.0000 ( 17975 PWs)   bands (ev):

   -15.5566 -14.3685  -9.3543  -8.1222  -5.4741  -5.4067  -4.1381  -3.9017
    -2.6107  -2.5615   0.0146   0.6293   1.4351   2.3087

          k = 0.1137 0.2436 0.0000 ( 17966 PWs)   bands (ev):

   -15.2951 -14.2982  -9.6827  -8.6405  -5.5996  -5.3253  -4.0529  -3.7376
    -2.5402  -2.4845   0.0270   0.1311   0.7441   1.9326

          k = 0.1137 0.3654 0.0000 ( 17958 PWs)   bands (ev):

   -14.9197 -14.3189  -9.9400  -9.3138  -5.3174  -4.9901  -4.0397  -3.8569
    -2.8603  -2.4567  -0.2039   0.2344   0.6906   1.0515

          k = 0.1137-0.4872 0.0000 ( 17922 PWs)   bands (ev):

   -14.5435 -14.5435  -9.8239  -9.8238  -4.8081  -4.8081  -4.2420  -4.2420
    -2.6774  -2.6773  -0.0966  -0.0965   1.2110   1.2110

          k = 0.2273 0.0000 0.0000 ( 18022 PWs)   bands (ev):

   -15.4345 -14.4202  -9.6519  -8.6021  -5.3300  -4.5002  -4.2508  -3.3511
    -2.8474  -2.3552   0.1364   0.4111   1.0701   1.3653

          k = 0.2273 0.1218 0.0000 ( 17978 PWs)   bands (ev):

   -15.3488 -14.3823  -9.6513  -8.6510  -5.4512  -5.2691  -4.0278  -3.6059
    -2.5497  -2.2172   0.0575   0.1913   0.6980   2.0188

          k = 0.2273 0.2436 0.0000 ( 17967 PWs)   bands (ev):

   -15.1094 -14.3060  -9.6890  -8.8617  -6.1384  -5.1803  -4.5978  -3.6061
    -3.0577  -2.1725  -0.0475   0.5645   0.7874   2.4026

          k = 0.2273 0.3654 0.0000 ( 17965 PWs)   bands (ev):

   -14.7760 -14.2973  -9.7474  -9.2592  -6.1794  -5.0730  -4.9040  -4.0096
    -3.6348  -2.6411   0.3493   1.0015   1.6171   1.9848

          k = 0.2273-0.4872 0.0000 ( 17988 PWs)   bands (ev):

   -14.4620 -14.4620  -9.6263  -9.6263  -5.6679  -5.6679  -4.5916  -4.5916
    -3.2849  -3.2848   1.0911   1.0912   1.6597   1.6597

          k = 0.3410 0.0000 0.0000 ( 17992 PWs)   bands (ev):

   -15.1212 -14.5325  -9.8986  -9.2903  -4.9418  -4.0775  -3.9938  -3.3604
    -2.8377  -1.6777  -0.4744   0.5016   0.5326   0.7726

          k = 0.3410 0.1218 0.0000 ( 18007 PWs)   bands (ev):

   -15.0472 -14.4884  -9.8303  -9.2544  -5.1388  -4.8922  -4.1551  -3.8310
    -2.3076  -2.1841  -0.0638   0.2549   0.6574   1.4116

          k = 0.3410 0.2436 0.0000 ( 17976 PWs)   bands (ev):

   -14.8462 -14.3865  -9.6668  -9.2009  -6.1675  -5.2078  -4.8166  -3.9600
    -3.4140  -2.5463   0.4938   1.0446   1.7778   2.0014

          k = 0.3410 0.3654 0.0000 ( 17993 PWs)   bands (ev):

   -14.5853 -14.3147  -9.5128  -9.2494  -6.5941  -5.8057  -5.1595  -4.4817
    -3.7397  -3.1348   1.0738   1.7664   2.0153   3.0934

          k = 0.3410-0.4872 0.0000 ( 18034 PWs)   bands (ev):

   -14.3760 -14.3759  -9.3894  -9.3893  -6.3427  -6.3427  -5.0979  -5.0978
    -3.4876  -3.4875   1.4384   1.4385   2.9522   2.9523

          k =-0.4547 0.0000 0.0000 ( 17960 PWs)   bands (ev):

   -14.7860 -14.7860  -9.7718  -9.7718  -4.4257  -4.4256  -3.6321  -3.6320
    -2.1230  -2.1229  -0.1049  -0.1048   0.5619   0.5621

          k =-0.4547 0.1218 0.0000 ( 18006 PWs)   bands (ev):

   -14.7278 -14.7277  -9.6971  -9.6970  -4.6489  -4.6488  -4.3301  -4.3300
    -2.1852  -2.1851   0.0182   0.0183   1.2459   1.2460

          k =-0.4547 0.2436 0.0000 ( 17982 PWs)   bands (ev):

   -14.5780 -14.5780  -9.5111  -9.5111  -5.7690  -5.7689  -4.4444  -4.4444
    -3.1324  -3.1323   1.2300   1.2301   1.8234   1.8234

          k =-0.4547 0.3654 0.0000 ( 18016 PWs)   bands (ev):

   -14.4128 -14.4128  -9.3333  -9.3333  -6.4387  -6.4387  -4.9728  -4.9727
    -3.4938  -3.4937   1.4641   1.4641   3.1352   3.1353

          k =-0.4547-0.4872 0.0000 ( 18036 PWs)   bands (ev):

   -14.3389 -14.3388  -9.2740  -9.2739  -6.5890  -6.5890  -5.3484  -5.3483
    -3.5015  -3.5014   1.4889   1.4889   3.3771   3.3772

     the Fermi energy is    -1.0921 ev

!    total energy              =    -706.94767121 Ry

     total all-electron energy =    -18116.436011 Ry
     estimated scf accuracy    <          8.1E-10 Ry
     smearing contrib. (-TS)   =      -0.00000707 Ry
     internal energy E=F+TS    =    -706.94766414 Ry

     The total energy is F=E-TS. E is the sum of the following terms:
     one-electron contribution =    -289.33218306 Ry
     hartree contribution      =     149.65521113 Ry
     xc contribution           =     -25.84215975 Ry
     ewald contribution        =     102.94580169 Ry
     one-center paw contrib.   =    -644.37433414 Ry

     convergence has been achieved in   4 iterations

     negative rho (up, down):  1.975E-04 0.000E+00

     Forces acting on atoms (cartesian axes, Ry/au):

     atom    1 type  1   force =     0.00000034    0.00000000   -0.00001565
     atom    2 type  1   force =     0.00000867    0.00000000    0.00000853
     atom    3 type  2   force =    -0.00000296    0.00000000   -0.00001184
     atom    4 type  2   force =    -0.00000605    0.00000000    0.00001897

     Total force =     0.000031     Total SCF correction =     0.000047
     SCF correction compared to forces is large: reduce conv_thr to get better values


     Computing stress (Cartesian axis) and pressure


     negative rho (up, down):  1.975E-04 0.000E+00
          total   stress  (Ry/bohr**3)                   (kbar)     P=       -0.01
  -0.00000009   0.00000000   0.00000000           -0.01        0.00        0.00
   0.00000000  -0.00000006   0.00000000            0.00       -0.01        0.00
   0.00000000   0.00000000  -0.00000010            0.00        0.00       -0.02


     number of scf cycles    =   2
     number of bfgs steps    =   1

     enthalpy old            =    -706.9476712079 Ry
     enthalpy new            =    -706.9476712104 Ry

     CASE: enthalpy_new < enthalpy_old


     WARNING: bfgs curvature condition failed, Theta= 0.871
     small trust_radius: resetting bfgs history

     new trust radius        =       0.0000219852 bohr
     new conv_thr            =            1.0E-10 Ry

     new unit-cell volume =   2290.45408 a.u.^3 (   339.41028 Ang^3 )
     density =      1.48309 g/cm^3

CELL_PARAMETERS (alat=  7.32826342)
   1.099673922   0.000000000   0.000000000
   0.000000000   1.026180198   0.000000000
   0.000000000   0.000000000   5.157400000

ATOMIC_POSITIONS (crystal)
Ge            0.0982378145        0.2500000000        0.4277362422
Ge            0.5982260883        0.7500000000        0.5483265051
Se            0.5144975203        0.7500000000        0.4225045187
Se            0.0144945769        0.2500000000        0.5535577340



     Writing output data file ./out/pwscf.save/
     NEW-OLD atomic charge density approx. for the potential

     negative rho (up, down):  1.975E-04 0.000E+00
     extrapolated charge   19.99992, renormalised to   20.00000

     total cpu time spent up to now is       15.4 secs

     Self-consistent Calculation

     iteration #  1     ecut=    60.00 Ry     beta= 0.70
     Davidson diagonalization with overlap
     ethr =  1.00E-06,  avg # of iterations =  1.0

     Threshold (ethr) on eigenvalues was too large:
     Diagonalizing with lowered threshold

     Davidson diagonalization with overlap
     ethr =  4.66E-11,  avg # of iterations =  1.0

     negative rho (up, down):  1.975E-04 0.000E+00

     total cpu time spent up to now is       16.3 secs

     total energy              =    -706.94767120 Ry
     estimated scf accuracy    <       0.00000001 Ry

     iteration #  2     ecut=    60.00 Ry     beta= 0.70
     Davidson diagonalization with overlap
     ethr =  5.05E-11,  avg # of iterations =  2.6

     negative rho (up, down):  1.975E-04 0.000E+00

     total cpu time spent up to now is       16.8 secs

     total energy              =    -706.94767121 Ry
     estimated scf accuracy    <       0.00000002 Ry

     iteration #  3     ecut=    60.00 Ry     beta= 0.70
     Davidson diagonalization with overlap
     ethr =  5.05E-11,  avg # of iterations =  2.0

     negative rho (up, down):  1.975E-04 0.000E+00

     total cpu time spent up to now is       17.3 secs

     total energy              =    -706.94767121 Ry
     estimated scf accuracy    <          1.3E-09 Ry

     iteration #  4     ecut=    60.00 Ry     beta= 0.70
     Davidson diagonalization with overlap
     ethr =  6.64E-12,  avg # of iterations =  1.9

     negative rho (up, down):  1.975E-04 0.000E+00

     total cpu time spent up to now is       18.2 secs

     total energy              =    -706.94767121 Ry
     estimated scf accuracy    <          6.7E-10 Ry

     iteration #  5     ecut=    60.00 Ry     beta= 0.70
     Davidson diagonalization with overlap
     ethr =  3.36E-12,  avg # of iterations =  1.2

     negative rho (up, down):  1.975E-04 0.000E+00

     total cpu time spent up to now is       18.6 secs

     total energy              =    -706.94767121 Ry
     estimated scf accuracy    <          1.2E-10 Ry

     iteration #  6     ecut=    60.00 Ry     beta= 0.70
     Davidson diagonalization with overlap
     ethr =  6.20E-13,  avg # of iterations =  1.1

     negative rho (up, down):  1.975E-04 0.000E+00

     total cpu time spent up to now is       19.3 secs

     End of self-consistent calculation

          k = 0.0000 0.0000 0.0000 ( 17973 PWs)   bands (ev):

   -15.7245 -14.4129  -8.9967  -7.6658  -5.5178  -5.0936  -4.8838  -3.4989
    -3.4973  -2.4588  -0.0509   1.1209   1.8053   2.4439

          k = 0.0000 0.1218 0.0000 ( 17955 PWs)   bands (ev):

   -15.6300 -14.3743  -9.2135  -7.9129  -5.5296  -5.0616  -4.7544  -3.6397
    -3.1014  -2.5043  -0.0335   1.4851   1.5422   1.8783

          k = 0.0000 0.2436 0.0000 ( 17983 PWs)   bands (ev):

   -15.3615 -14.3040  -9.6836  -8.5723  -5.3827  -4.8573  -4.4305  -3.5633
    -2.6901  -2.5826   0.0971   0.3886   0.9272   1.6312

          k = 0.0000 0.3654 0.0000 ( 17932 PWs)   bands (ev):

   -14.9725 -14.3324 -10.0126  -9.3421  -4.9970  -4.4803  -4.1102  -3.5299
    -2.8552  -2.1840  -0.4586   0.1453   0.3418   0.8747

          k = 0.0000-0.4872 0.0000 ( 17894 PWs)   bands (ev):

   -14.5762 -14.5761  -9.8975  -9.8975  -4.5231  -4.5231  -3.8091  -3.8090
    -2.4916  -2.4916  -0.2354  -0.2352   0.1671   0.1672

          k = 0.1137 0.0000 0.0000 ( 17996 PWs)   bands (ev):

   -15.6490 -14.4065  -9.2241  -7.9476  -5.5082  -4.8249  -4.7848  -3.4487
    -3.1299  -2.5655  -0.0252   1.2880   1.3876   1.9477

          k = 0.1137 0.1218 0.0000 ( 17975 PWs)   bands (ev):

   -15.5566 -14.3686  -9.3543  -8.1223  -5.4742  -5.4068  -4.1381  -3.9018
    -2.6108  -2.5616   0.0146   0.6293   1.4350   2.3086

          k = 0.1137 0.2436 0.0000 ( 17966 PWs)   bands (ev):

   -15.2952 -14.2983  -9.6827  -8.6405  -5.5997  -5.3254  -4.0530  -3.7377
    -2.5403  -2.4846   0.0269   0.1311   0.7441   1.9326

          k = 0.1137 0.3654 0.0000 ( 17958 PWs)   bands (ev):

   -14.9198 -14.3190  -9.9401  -9.3138  -5.3174  -4.9901  -4.0398  -3.8569
    -2.8603  -2.4567  -0.2039   0.2343   0.6905   1.0515

          k = 0.1137-0.4872 0.0000 ( 17922 PWs)   bands (ev):

   -14.5436 -14.5435  -9.8239  -9.8239  -4.8081  -4.8081  -4.2421  -4.2421
    -2.6774  -2.6774  -0.0966  -0.0965   1.2109   1.2109

          k = 0.2273 0.0000 0.0000 ( 18022 PWs)   bands (ev):

   -15.4346 -14.4203  -9.6519  -8.6021  -5.3301  -4.5002  -4.2509  -3.3512
    -2.8474  -2.3553   0.1363   0.4111   1.0701   1.3653

          k = 0.2273 0.1218 0.0000 ( 17978 PWs)   bands (ev):

   -15.3489 -14.3824  -9.6514  -8.6511  -5.4512  -5.2692  -4.0278  -3.6059
    -2.5497  -2.2173   0.0575   0.1912   0.6980   2.0188

          k = 0.2273 0.2436 0.0000 ( 17967 PWs)   bands (ev):

   -15.1094 -14.3061  -9.6890  -8.8618  -6.1384  -5.1803  -4.5979  -3.6062
    -3.0577  -2.1726  -0.0475   0.5645   0.7874   2.4025

          k = 0.2273 0.3654 0.0000 ( 17965 PWs)   bands (ev):

   -14.7761 -14.2974  -9.7474  -9.2592  -6.1794  -5.0730  -4.9041  -4.0097
    -3.6348  -2.6411   0.3493   1.0014   1.6170   1.9847

          k = 0.2273-0.4872 0.0000 ( 17988 PWs)   bands (ev):

   -14.4621 -14.4620  -9.6264  -9.6263  -5.6679  -5.6679  -4.5917  -4.5917
    -3.2849  -3.2848   1.0911   1.0911   1.6597   1.6597

          k = 0.3410 0.0000 0.0000 ( 17992 PWs)   bands (ev):

   -15.1212 -14.5326  -9.8987  -9.2904  -4.9418  -4.0775  -3.9938  -3.3605
    -2.8377  -1.6777  -0.4744   0.5016   0.5326   0.7726

          k = 0.3410 0.1218 0.0000 ( 18007 PWs)   bands (ev):

   -15.0473 -14.4885  -9.8303  -9.2544  -5.1388  -4.8922  -4.1552  -3.8310
    -2.3077  -2.1841  -0.0638   0.2549   0.6573   1.4116

          k = 0.3410 0.2436 0.0000 ( 17976 PWs)   bands (ev):

   -14.8463 -14.3865  -9.6668  -9.2010  -6.1676  -5.2078  -4.8166  -3.9601
    -3.4141  -2.5463   0.4938   1.0446   1.7778   2.0013

          k = 0.3410 0.3654 0.0000 ( 17993 PWs)   bands (ev):

   -14.5854 -14.3148  -9.5128  -9.2495  -6.5942  -5.8058  -5.1596  -4.4818
    -3.7397  -3.1348   1.0738   1.7663   2.0153   3.0933

          k = 0.3410-0.4872 0.0000 ( 18034 PWs)   bands (ev):

   -14.3760 -14.3760  -9.3894  -9.3893  -6.3428  -6.3427  -5.0979  -5.0979
    -3.4876  -3.4875   1.4383   1.4384   2.9523   2.9523

          k =-0.4547 0.0000 0.0000 ( 17960 PWs)   bands (ev):

   -14.7861 -14.7860  -9.7719  -9.7718  -4.4257  -4.4257  -3.6322  -3.6320
    -2.1230  -2.1230  -0.1049  -0.1048   0.5619   0.5620

          k =-0.4547 0.1218 0.0000 ( 18006 PWs)   bands (ev):

   -14.7278 -14.7278  -9.6971  -9.6971  -4.6490  -4.6489  -4.3301  -4.3301
    -2.1852  -2.1851   0.0182   0.0183   1.2458   1.2459

          k =-0.4547 0.2436 0.0000 ( 17982 PWs)   bands (ev):

   -14.5781 -14.5781  -9.5111  -9.5111  -5.7691  -5.7690  -4.4445  -4.4444
    -3.1324  -3.1323   1.2300   1.2300   1.8234   1.8234

          k =-0.4547 0.3654 0.0000 ( 18016 PWs)   bands (ev):

   -14.4129 -14.4129  -9.3334  -9.3333  -6.4388  -6.4387  -4.9729  -4.9728
    -3.4939  -3.4938   1.4640   1.4641   3.1353   3.1353

          k =-0.4547-0.4872 0.0000 ( 18036 PWs)   bands (ev):

   -14.3389 -14.3389  -9.2740  -9.2740  -6.5891  -6.5890  -5.3485  -5.3484
    -3.5015  -3.5015   1.4888   1.4888   3.3770   3.3771

     the Fermi energy is    -1.0921 ev

!    total energy              =    -706.94767121 Ry

     total all-electron energy =    -18116.436011 Ry
     estimated scf accuracy    <          7.6E-11 Ry
     smearing contrib. (-TS)   =      -0.00000707 Ry
     internal energy E=F+TS    =    -706.94766414 Ry

     The total energy is F=E-TS. E is the sum of the following terms:
     one-electron contribution =    -289.33251572 Ry
     hartree contribution      =     149.65546729 Ry
     xc contribution           =     -25.84217232 Ry
     ewald contribution        =     102.94589683 Ry
     one-center paw contrib.   =    -644.37434022 Ry

     convergence has been achieved in   6 iterations

     negative rho (up, down):  1.975E-04 0.000E+00

     Forces acting on atoms (cartesian axes, Ry/au):

     atom    1 type  1   force =    -0.00000083    0.00000000   -0.00001109
     atom    2 type  1   force =     0.00000644    0.00000000    0.00000796
     atom    3 type  2   force =    -0.00000137    0.00000000   -0.00000865
     atom    4 type  2   force =    -0.00000424    0.00000000    0.00001178

     Total force =     0.000021     Total SCF correction =     0.000022
     SCF correction compared to forces is large: reduce conv_thr to get better values


     Computing stress (Cartesian axis) and pressure


     negative rho (up, down):  1.975E-04 0.000E+00
          total   stress  (Ry/bohr**3)                   (kbar)     P=       -0.01
  -0.00000008   0.00000000   0.00000000           -0.01        0.00        0.00
   0.00000000  -0.00000006   0.00000000            0.00       -0.01        0.00
   0.00000000   0.00000000  -0.00000010            0.00        0.00       -0.02


     number of scf cycles    =   3
     number of bfgs steps    =   2

     enthalpy old            =    -706.9476712104 Ry
     enthalpy new            =    -706.9476712115 Ry

     CASE: enthalpy_new < enthalpy_old

     Message from routine bfgs:
     history already reset at previous step: stopping
     small trust_radius: resetting bfgs history

     new trust radius        =       0.0000202289 bohr
     new conv_thr            =            1.0E-10 Ry

     new unit-cell volume =   2290.44601 a.u.^3 (   339.40908 Ang^3 )
     density =      1.48309 g/cm^3

CELL_PARAMETERS (alat=  7.32826342)
   1.099671598   0.000000000   0.000000000
   0.000000000   1.026178751   0.000000000
   0.000000000   0.000000000   5.157400000

ATOMIC_POSITIONS (crystal)
Ge            0.0982377121        0.2500000000        0.4277359489
Ge            0.5982268869        0.7500000000        0.5483267158
Se            0.5144973502        0.7500000000        0.4225042897
Se            0.0144940508        0.2500000000        0.5535580456



     Writing output data file ./out/pwscf.save/
     NEW-OLD atomic charge density approx. for the potential

     negative rho (up, down):  1.974E-04 0.000E+00
     extrapolated charge   19.99993, renormalised to   20.00000

     total cpu time spent up to now is       20.4 secs

     Self-consistent Calculation

     iteration #  1     ecut=    60.00 Ry     beta= 0.70
     Davidson diagonalization with overlap
     ethr =  1.00E-06,  avg # of iterations =  1.0

     Threshold (ethr) on eigenvalues was too large:
     Diagonalizing with lowered threshold

     Davidson diagonalization with overlap
     ethr =  1.98E-11,  avg # of iterations =  1.0

     negative rho (up, down):  1.975E-04 0.000E+00

     total cpu time spent up to now is       21.3 secs

     total energy              =    -706.94767121 Ry
     estimated scf accuracy    <          4.3E-09 Ry

     iteration #  2     ecut=    60.00 Ry     beta= 0.70
     Davidson diagonalization with overlap
     ethr =  2.13E-11,  avg # of iterations =  2.6

     negative rho (up, down):  1.975E-04 0.000E+00

     total cpu time spent up to now is       21.8 secs

     total energy              =    -706.94767121 Ry
     estimated scf accuracy    <       0.00000001 Ry

     iteration #  3     ecut=    60.00 Ry     beta= 0.70
     Davidson diagonalization with overlap
     ethr =  2.13E-11,  avg # of iterations =  2.0

     negative rho (up, down):  1.975E-04 0.000E+00

     total cpu time spent up to now is       22.3 secs

     total energy              =    -706.94767121 Ry
     estimated scf accuracy    <          1.1E-09 Ry

     iteration #  4     ecut=    60.00 Ry     beta= 0.70
     Davidson diagonalization with overlap
     ethr =  5.51E-12,  avg # of iterations =  1.0

     negative rho (up, down):  1.975E-04 0.000E+00

     total cpu time spent up to now is       22.8 secs

     total energy              =    -706.94767121 Ry
     estimated scf accuracy    <          4.5E-10 Ry

     iteration #  5     ecut=    60.00 Ry     beta= 0.70
     Davidson diagonalization with overlap
     ethr =  2.26E-12,  avg # of iterations =  1.0

     negative rho (up, down):  1.975E-04 0.000E+00

     total cpu time spent up to now is       23.3 secs

     total energy              =    -706.94767121 Ry
     estimated scf accuracy    <          2.7E-10 Ry

     iteration #  6     ecut=    60.00 Ry     beta= 0.70
     Davidson diagonalization with overlap
     ethr =  1.37E-12,  avg # of iterations =  1.0

     negative rho (up, down):  1.974E-04 0.000E+00

     total cpu time spent up to now is       23.7 secs

     total energy              =    -706.94767121 Ry
     estimated scf accuracy    <          1.3E-10 Ry

     iteration #  7     ecut=    60.00 Ry     beta= 0.70
     Davidson diagonalization with overlap
     ethr =  6.29E-13,  avg # of iterations =  2.0

     negative rho (up, down):  1.974E-04 0.000E+00

     total cpu time spent up to now is       24.3 secs

     End of self-consistent calculation

          k = 0.0000 0.0000 0.0000 ( 17973 PWs)   bands (ev):

   -15.7245 -14.4129  -8.9967  -7.6658  -5.5179  -5.0936  -4.8838  -3.4990
    -3.4974  -2.4589  -0.0510   1.1208   1.8053   2.4439

          k = 0.0000 0.1218 0.0000 ( 17955 PWs)   bands (ev):

   -15.6300 -14.3744  -9.2135  -7.9129  -5.5296  -5.0616  -4.7544  -3.6397
    -3.1014  -2.5043  -0.0335   1.4852   1.5422   1.8783

          k = 0.0000 0.2436 0.0000 ( 17983 PWs)   bands (ev):

   -15.3615 -14.3040  -9.6836  -8.5723  -5.3827  -4.8573  -4.4305  -3.5634
    -2.6901  -2.5826   0.0971   0.3886   0.9272   1.6312

          k = 0.0000 0.3654 0.0000 ( 17932 PWs)   bands (ev):

   -14.9726 -14.3324 -10.0126  -9.3421  -4.9970  -4.4803  -4.1102  -3.5299
    -2.8552  -2.1840  -0.4586   0.1453   0.3418   0.8747

          k = 0.0000-0.4872 0.0000 ( 17894 PWs)   bands (ev):

   -14.5762 -14.5761  -9.8975  -9.8975  -4.5231  -4.5231  -3.8091  -3.8090
    -2.4916  -2.4916  -0.2353  -0.2352   0.1671   0.1672

          k = 0.1137 0.0000 0.0000 ( 17996 PWs)   bands (ev):

   -15.6491 -14.4065  -9.2241  -7.9477  -5.5082  -4.8249  -4.7848  -3.4487
    -3.1299  -2.5655  -0.0252   1.2880   1.3876   1.9477

          k = 0.1137 0.1218 0.0000 ( 17975 PWs)   bands (ev):

   -15.5567 -14.3686  -9.3543  -8.1223  -5.4742  -5.4068  -4.1381  -3.9018
    -2.6108  -2.5616   0.0145   0.6293   1.4350   2.3086

          k = 0.1137 0.2436 0.0000 ( 17966 PWs)   bands (ev):

   -15.2952 -14.2983  -9.6827  -8.6405  -5.5997  -5.3254  -4.0530  -3.7377
    -2.5403  -2.4846   0.0269   0.1310   0.7441   1.9326

          k = 0.1137 0.3654 0.0000 ( 17958 PWs)   bands (ev):

   -14.9198 -14.3190  -9.9401  -9.3139  -5.3175  -4.9902  -4.0398  -3.8569
    -2.8603  -2.4567  -0.2039   0.2343   0.6905   1.0515

          k = 0.1137-0.4872 0.0000 ( 17922 PWs)   bands (ev):

   -14.5436 -14.5436  -9.8239  -9.8239  -4.8081  -4.8081  -4.2421  -4.2421
    -2.6774  -2.6774  -0.0966  -0.0965   1.2109   1.2109

          k = 0.2273 0.0000 0.0000 ( 18022 PWs)   bands (ev):

   -15.4346 -14.4203  -9.6519  -8.6021  -5.3301  -4.5002  -4.2509  -3.3512
    -2.8474  -2.3553   0.1363   0.4111   1.0701   1.3653

          k = 0.2273 0.1218 0.0000 ( 17978 PWs)   bands (ev):

   -15.3489 -14.3824  -9.6514  -8.6511  -5.4513  -5.2692  -4.0279  -3.6059
    -2.5497  -2.2173   0.0575   0.1912   0.6980   2.0188

          k = 0.2273 0.2436 0.0000 ( 17967 PWs)   bands (ev):

   -15.1094 -14.3061  -9.6890  -8.8618  -6.1384  -5.1803  -4.5979  -3.6062
    -3.0577  -2.1726  -0.0475   0.5645   0.7874   2.4024

          k = 0.2273 0.3654 0.0000 ( 17965 PWs)   bands (ev):

   -14.7761 -14.2974  -9.7475  -9.2592  -6.1794  -5.0731  -4.9041  -4.0097
    -3.6349  -2.6411   0.3493   1.0014   1.6170   1.9847

          k = 0.2273-0.4872 0.0000 ( 17988 PWs)   bands (ev):

   -14.4621 -14.4620  -9.6264  -9.6264  -5.6679  -5.6679  -4.5917  -4.5917
    -3.2849  -3.2848   1.0911   1.0911   1.6597   1.6597

          k = 0.3410 0.0000 0.0000 ( 17992 PWs)   bands (ev):

   -15.1212 -14.5326  -9.8987  -9.2904  -4.9419  -4.0776  -3.9938  -3.3605
    -2.8377  -1.6777  -0.4744   0.5016   0.5325   0.7726

          k = 0.3410 0.1218 0.0000 ( 18007 PWs)   bands (ev):

   -15.0473 -14.4885  -9.8304  -9.2544  -5.1389  -4.8922  -4.1552  -3.8310
    -2.3077  -2.1841  -0.0638   0.2549   0.6573   1.4116

          k = 0.3410 0.2436 0.0000 ( 17976 PWs)   bands (ev):

   -14.8463 -14.3866  -9.6668  -9.2010  -6.1676  -5.2078  -4.8166  -3.9601
    -3.4141  -2.5464   0.4938   1.0445   1.7777   2.0012

          k = 0.3410 0.3654 0.0000 ( 17993 PWs)   bands (ev):

   -14.5854 -14.3148  -9.5128  -9.2495  -6.5942  -5.8058  -5.1596  -4.4818
    -3.7397  -3.1348   1.0737   1.7662   2.0153   3.0933

          k = 0.3410-0.4872 0.0000 ( 18034 PWs)   bands (ev):

   -14.3760 -14.3760  -9.3894  -9.3894  -6.3428  -6.3427  -5.0980  -5.0979
    -3.4876  -3.4875   1.4383   1.4384   2.9523   2.9523

          k =-0.4547 0.0000 0.0000 ( 17960 PWs)   bands (ev):

   -14.7861 -14.7860  -9.7719  -9.7718  -4.4257  -4.4257  -3.6322  -3.6321
    -2.1230  -2.1230  -0.1049  -0.1049   0.5619   0.5620

          k =-0.4547 0.1218 0.0000 ( 18006 PWs)   bands (ev):

   -14.7279 -14.7278  -9.6971  -9.6971  -4.6490  -4.6489  -4.3301  -4.3301
    -2.1852  -2.1851   0.0182   0.0183   1.2458   1.2458

          k =-0.4547 0.2436 0.0000 ( 17982 PWs)   bands (ev):

   -14.5781 -14.5781  -9.5112  -9.5111  -5.7691  -5.7690  -4.4445  -4.4444
    -3.1324  -3.1323   1.2300   1.2300   1.8234   1.8234

          k =-0.4547 0.3654 0.0000 ( 18016 PWs)   bands (ev):

   -14.4129 -14.4129  -9.3334  -9.3334  -6.4388  -6.4387  -4.9729  -4.9728
    -3.4939  -3.4938   1.4640   1.4640   3.1353   3.1353

          k =-0.4547-0.4872 0.0000 ( 18036 PWs)   bands (ev):

   -14.3389 -14.3389  -9.2741  -9.2740  -6.5891  -6.5890  -5.3485  -5.3484
    -3.5016  -3.5015   1.4887   1.4888   3.3770   3.3771

     the Fermi energy is    -1.0921 ev

!    total energy              =    -706.94767121 Ry

     total all-electron energy =    -18116.436011 Ry
     estimated scf accuracy    <          1.6E-12 Ry
     smearing contrib. (-TS)   =      -0.00000707 Ry
     internal energy E=F+TS    =    -706.94766414 Ry

     The total energy is F=E-TS. E is the sum of the following terms:
     one-electron contribution =    -289.33295072 Ry
     hartree contribution      =     149.65572975 Ry
     xc contribution           =     -25.84217648 Ry
     ewald contribution        =     102.94607476 Ry
     one-center paw contrib.   =    -644.37434146 Ry

     convergence has been achieved in   7 iterations

     negative rho (up, down):  1.974E-04 0.000E+00

     Forces acting on atoms (cartesian axes, Ry/au):

     atom    1 type  1   force =    -0.00000139    0.00000000   -0.00000820
     atom    2 type  1   force =     0.00000502    0.00000000    0.00000631
     atom    3 type  2   force =    -0.00000075    0.00000000   -0.00000505
     atom    4 type  2   force =    -0.00000288    0.00000000    0.00000695

     Total force =     0.000015     Total SCF correction =     0.000003
     SCF correction compared to forces is large: reduce conv_thr to get better values


     Computing stress (Cartesian axis) and pressure


     negative rho (up, down):  1.974E-04 0.000E+00
          total   stress  (Ry/bohr**3)                   (kbar)     P=       -0.01
  -0.00000008   0.00000000   0.00000000           -0.01        0.00        0.00
   0.00000000  -0.00000006   0.00000000            0.00       -0.01        0.00
   0.00000000   0.00000000  -0.00000011            0.00        0.00       -0.02


     bfgs converged in   4 scf cycles and   3 bfgs steps
     (criteria: energy <  1.0E-04 Ry, force <  1.0E-05Ry/Bohr, cell <  5.0E-01kbar)

     End of BFGS Geometry Optimization

     Final enthalpy =    -706.9476712125 Ry

     File ./out/pwscf.bfgs deleted, as requested
Begin final coordinates
     new unit-cell volume =   2290.44601 a.u.^3 (   339.40908 Ang^3 )
     density =      1.48309 g/cm^3

CELL_PARAMETERS (alat=  7.32826342)
   1.099671598   0.000000000   0.000000000
   0.000000000   1.026178751   0.000000000
   0.000000000   0.000000000   5.157400000

ATOMIC_POSITIONS (crystal)
Ge            0.0982377121        0.2500000000        0.4277359489
Ge            0.5982268869        0.7500000000        0.5483267158
Se            0.5144973502        0.7500000000        0.4225042897
Se            0.0144940508        0.2500000000        0.5535580456
End final coordinates



     Writing output data file ./out/pwscf.save/

     Final scf calculation at the relaxed structure.
     The G-vectors are recalculated for the final unit cell
     Results may differ from those at the preceding step.
 
     Parallelization info
     --------------------
     sticks:   dense  smooth     PW     G-vecs:    dense   smooth      PW
     Min          37      36     10                 4765     4480     688
     Max          38      37     11                 4790     4498     707
     Sum        1201    1155    331               152811   143713   22275
 


     bravais-lattice index     =            0
     lattice parameter (alat)  =       7.3283  a.u.
     unit-cell volume          =    2290.4460 (a.u.)^3
     number of atoms/cell      =            4
     number of atomic types    =            2
     number of electrons       =        20.00
     number of Kohn-Sham states=           14
     kinetic-energy cutoff     =      60.0000  Ry
     charge density cutoff     =     250.0000  Ry
     convergence threshold     =      1.0E-10
     mixing beta               =       0.7000
     number of iterations used =            8  plain     mixing
     Exchange-correlation= SLA PW PBX PBC
                           (   1   4   3   4   0   0   0)

     celldm(1)=   7.328263  celldm(2)=   0.000000  celldm(3)=   0.000000
     celldm(4)=   0.000000  celldm(5)=   0.000000  celldm(6)=   0.000000

     crystal axes: (cart. coord. in units of alat)
               a(1) = (   1.099672   0.000000   0.000000 )  
               a(2) = (   0.000000   1.026179   0.000000 )  
               a(3) = (   0.000000   0.000000   5.157400 )  

     reciprocal axes: (cart. coord. in units 2 pi/alat)
               b(1) = (  0.909362  0.000000  0.000000 )  
               b(2) = (  0.000000  0.974489  0.000000 )  
               b(3) = (  0.000000  0.000000  0.193896 )  


     PseudoPot. # 1 for Ge read from file:
     /ibex/scratch/jangira/qe/pseudo/Ge.pbe-n-kjpaw_psl.1.0.0.UPF
     MD5 check sum: 86cd6a1ce4ead6fa7a4673d64b86017a
     Pseudo is Projector augmented-wave + core cor, Zval =  4.0
     Generated using "atomic" code by A. Dal Corso v.6.3
     Shape of augmentation charge: PSQ
     Using radial grid of 1207 points,  4 beta functions with: 
                l(1) =   0
                l(2) =   0
                l(3) =   1
                l(4) =   1
     Q(r) pseudized with 0 coefficients 


     PseudoPot. # 2 for Se read from file:
     /ibex/scratch/jangira/qe/pseudo/Se.pbe-n-kjpaw_psl.1.0.0.UPF
     MD5 check sum: a24196f260b4188fa853fb27ef2f7c98
     Pseudo is Projector augmented-wave + core cor, Zval =  6.0
     Generated using "atomic" code by A. Dal Corso v.5.1.2
     Shape of augmentation charge: PSQ
     Using radial grid of 1211 points,  4 beta functions with: 
                l(1) =   0
                l(2) =   0
                l(3) =   1
                l(4) =   1
     Q(r) pseudized with 0 coefficients 


     atomic species   valence    mass     pseudopotential
        Ge             4.00    72.61000     Ge( 1.00)
        Se             6.00    78.96000     Se( 1.00)

      2 Sym. Ops. (no inversion) found ( 1 have fractional translation)



   Cartesian axes

     site n.     atom                  positions (alat units)
         1           Ge  tau(   1) = (   0.1080292   0.2565447   2.2060054  )
         2           Ge  tau(   2) = (   0.6578531   0.7696341   2.8279402  )
         3           Se  tau(   3) = (   0.5657781   0.7696341   2.1790236  )
         4           Se  tau(   4) = (   0.0159387   0.2565447   2.8549203  )

     number of k points=    25  Gaussian smearing, width (Ry)=  0.0200
                       cart. coord. in units 2pi/alat
        k(    1) = (   0.0000000   0.0000000   0.0000000), wk =   0.0312500
        k(    2) = (   0.0000000   0.1218111   0.0000000), wk =   0.0625000
        k(    3) = (   0.0000000   0.2436223   0.0000000), wk =   0.0625000
        k(    4) = (   0.0000000   0.3654334   0.0000000), wk =   0.0625000
        k(    5) = (   0.0000000  -0.4872445   0.0000000), wk =   0.0312500
        k(    6) = (   0.1136703   0.0000000   0.0000000), wk =   0.0625000
        k(    7) = (   0.1136703   0.1218111   0.0000000), wk =   0.1250000
        k(    8) = (   0.1136703   0.2436223   0.0000000), wk =   0.1250000
        k(    9) = (   0.1136703   0.3654334   0.0000000), wk =   0.1250000
        k(   10) = (   0.1136703  -0.4872445   0.0000000), wk =   0.0625000
        k(   11) = (   0.2273406   0.0000000   0.0000000), wk =   0.0625000
        k(   12) = (   0.2273406   0.1218111   0.0000000), wk =   0.1250000
        k(   13) = (   0.2273406   0.2436223   0.0000000), wk =   0.1250000
        k(   14) = (   0.2273406   0.3654334   0.0000000), wk =   0.1250000
        k(   15) = (   0.2273406  -0.4872445   0.0000000), wk =   0.0625000
        k(   16) = (   0.3410109   0.0000000   0.0000000), wk =   0.0625000
        k(   17) = (   0.3410109   0.1218111   0.0000000), wk =   0.1250000
        k(   18) = (   0.3410109   0.2436223   0.0000000), wk =   0.1250000
        k(   19) = (   0.3410109   0.3654334   0.0000000), wk =   0.1250000
        k(   20) = (   0.3410109  -0.4872445   0.0000000), wk =   0.0625000
        k(   21) = (  -0.4546812   0.0000000   0.0000000), wk =   0.0312500
        k(   22) = (  -0.4546812   0.1218111   0.0000000), wk =   0.0625000
        k(   23) = (  -0.4546812   0.2436223   0.0000000), wk =   0.0625000
        k(   24) = (  -0.4546812   0.3654334   0.0000000), wk =   0.0625000
        k(   25) = (  -0.4546812  -0.4872445   0.0000000), wk =   0.0312500

     Dense  grid:   152811 G-vectors     FFT dimensions: (  45,  40, 192)

     Smooth grid:   143713 G-vectors     FFT dimensions: (  40,  40, 192)

     Estimated max dynamical RAM per process >      11.45 MB

     Estimated total dynamical RAM >     366.26 MB

     Initial potential from superposition of free atoms

     starting charge   19.99832, renormalised to   20.00000

     negative rho (up, down):  1.555E-04 0.000E+00
     Starting wfcs are   16 randomized atomic wfcs
     Checking if some PAW data can be deallocated... 

     total cpu time spent up to now is       25.9 secs

     Self-consistent Calculation

     iteration #  1     ecut=    60.00 Ry     beta= 0.70
     Davidson diagonalization with overlap
     c_bands:  1 eigenvalues not converged
     c_bands:  2 eigenvalues not converged
     c_bands:  2 eigenvalues not converged
     ethr =  1.00E-06,  avg # of iterations = 15.2

     negative rho (up, down):  1.867E-04 0.000E+00

     total cpu time spent up to now is       27.8 secs

     total energy              =    -706.92424335 Ry
     estimated scf accuracy    <       0.07339878 Ry

     iteration #  2     ecut=    60.00 Ry     beta= 0.70
     Davidson diagonalization with overlap
     ethr =  3.67E-04,  avg # of iterations =  2.1

     negative rho (up, down):  1.894E-04 0.000E+00

     total cpu time spent up to now is       28.3 secs

     total energy              =    -706.93840151 Ry
     estimated scf accuracy    <       0.04212398 Ry

     iteration #  3     ecut=    60.00 Ry     beta= 0.70
     Davidson diagonalization with overlap
     ethr =  2.11E-04,  avg # of iterations =  2.0

     negative rho (up, down):  1.956E-04 0.000E+00

     total cpu time spent up to now is       29.1 secs

     total energy              =    -706.94756161 Ry
     estimated scf accuracy    <       0.00073464 Ry

     iteration #  4     ecut=    60.00 Ry     beta= 0.70
     Davidson diagonalization with overlap
     ethr =  3.67E-06,  avg # of iterations =  2.8

     negative rho (up, down):  1.970E-04 0.000E+00

     total cpu time spent up to now is       29.9 secs

     total energy              =    -706.94759195 Ry
     estimated scf accuracy    <       0.00025798 Ry

     iteration #  5     ecut=    60.00 Ry     beta= 0.70
     Davidson diagonalization with overlap
     ethr =  1.29E-06,  avg # of iterations =  3.2

     negative rho (up, down):  1.976E-04 0.000E+00

     total cpu time spent up to now is       30.5 secs

     total energy              =    -706.94762288 Ry
     estimated scf accuracy    <       0.00038726 Ry

     iteration #  6     ecut=    60.00 Ry     beta= 0.70
     Davidson diagonalization with overlap
     ethr =  1.29E-06,  avg # of iterations =  1.9

     negative rho (up, down):  1.975E-04 0.000E+00

     total cpu time spent up to now is       31.3 secs

     total energy              =    -706.94766971 Ry
     estimated scf accuracy    <       0.00000218 Ry

     iteration #  7     ecut=    60.00 Ry     beta= 0.70
     Davidson diagonalization with overlap
     ethr =  1.09E-08,  avg # of iterations =  3.4

     negative rho (up, down):  1.974E-04 0.000E+00

     total cpu time spent up to now is       31.9 secs

     total energy              =    -706.94767111 Ry
     estimated scf accuracy    <       0.00000075 Ry

     iteration #  8     ecut=    60.00 Ry     beta= 0.70
     Davidson diagonalization with overlap
     ethr =  3.74E-09,  avg # of iterations =  2.0

     negative rho (up, down):  1.974E-04 0.000E+00

     total cpu time spent up to now is       32.3 secs

     total energy              =    -706.94767120 Ry
     estimated scf accuracy    <       0.00000004 Ry

     iteration #  9     ecut=    60.00 Ry     beta= 0.70
     Davidson diagonalization with overlap
     ethr =  1.88E-10,  avg # of iterations =  2.7

     negative rho (up, down):  1.974E-04 0.000E+00

     total cpu time spent up to now is       32.9 secs

     total energy              =    -706.94767121 Ry
     estimated scf accuracy    <          2.2E-09 Ry

     iteration # 10     ecut=    60.00 Ry     beta= 0.70
     Davidson diagonalization with overlap
     ethr =  1.10E-11,  avg # of iterations =  2.7

     negative rho (up, down):  1.974E-04 0.000E+00

     total cpu time spent up to now is       34.1 secs

     total energy              =    -706.94767121 Ry
     estimated scf accuracy    <          8.9E-10 Ry

     iteration # 11     ecut=    60.00 Ry     beta= 0.70
     Davidson diagonalization with overlap
     ethr =  4.43E-12,  avg # of iterations =  1.8

     negative rho (up, down):  1.974E-04 0.000E+00

     total cpu time spent up to now is       34.5 secs

     End of self-consistent calculation

          k = 0.0000 0.0000 0.0000 ( 17973 PWs)   bands (ev):

   -15.7246 -14.4129  -8.9967  -7.6658  -5.5179  -5.0936  -4.8838  -3.4990
    -3.4974  -2.4589  -0.0510   1.1208   1.8054   2.4440

          k = 0.0000 0.1218 0.0000 ( 17955 PWs)   bands (ev):

   -15.6300 -14.3744  -9.2135  -7.9129  -5.5296  -5.0617  -4.7544  -3.6397
    -3.1014  -2.5043  -0.0335   1.4852   1.5422   1.8783

          k = 0.0000 0.2436 0.0000 ( 17983 PWs)   bands (ev):

   -15.3615 -14.3040  -9.6836  -8.5724  -5.3827  -4.8573  -4.4305  -3.5634
    -2.6901  -2.5827   0.0971   0.3886   0.9272   1.6312

          k = 0.0000 0.3654 0.0000 ( 17932 PWs)   bands (ev):

   -14.9726 -14.3324 -10.0126  -9.3421  -4.9970  -4.4804  -4.1103  -3.5299
    -2.8552  -2.1840  -0.4586   0.1453   0.3418   0.8747

          k = 0.0000-0.4872 0.0000 ( 17894 PWs)   bands (ev):

   -14.5762 -14.5761  -9.8975  -9.8975  -4.5231  -4.5231  -3.8091  -3.8090
    -2.4916  -2.4916  -0.2353  -0.2352   0.1671   0.1672

          k = 0.1137 0.0000 0.0000 ( 17996 PWs)   bands (ev):

   -15.6491 -14.4065  -9.2241  -7.9477  -5.5082  -4.8249  -4.7848  -3.4487
    -3.1299  -2.5655  -0.0252   1.2880   1.3876   1.9477

          k = 0.1137 0.1218 0.0000 ( 17975 PWs)   bands (ev):

   -15.5567 -14.3687  -9.3543  -8.1223  -5.4742  -5.4068  -4.1381  -3.9018
    -2.6108  -2.5616   0.0145   0.6293   1.4350   2.3089

          k = 0.1137 0.2436 0.0000 ( 17966 PWs)   bands (ev):

   -15.2952 -14.2983  -9.6827  -8.6405  -5.5997  -5.3254  -4.0530  -3.7377
    -2.5403  -2.4846   0.0269   0.1310   0.7441   1.9326

          k = 0.1137 0.3654 0.0000 ( 17958 PWs)   bands (ev):

   -14.9198 -14.3190  -9.9401  -9.3139  -5.3175  -4.9902  -4.0398  -3.8569
    -2.8603  -2.4567  -0.2039   0.2343   0.6905   1.0515

          k = 0.1137-0.4872 0.0000 ( 17922 PWs)   bands (ev):

   -14.5436 -14.5436  -9.8239  -9.8239  -4.8081  -4.8081  -4.2421  -4.2421
    -2.6774  -2.6774  -0.0966  -0.0965   1.2109   1.2109

          k = 0.2273 0.0000 0.0000 ( 18020 PWs)   bands (ev):

   -15.4346 -14.4203  -9.6519  -8.6022  -5.3301  -4.5002  -4.2509  -3.3512
    -2.8474  -2.3553   0.1363   0.4111   1.0701   1.3653

          k = 0.2273 0.1218 0.0000 ( 17978 PWs)   bands (ev):

   -15.3489 -14.3824  -9.6514  -8.6511  -5.4513  -5.2692  -4.0279  -3.6059
    -2.5497  -2.2173   0.0575   0.1912   0.6980   2.0189

          k = 0.2273 0.2436 0.0000 ( 17967 PWs)   bands (ev):

   -15.1095 -14.3061  -9.6890  -8.8618  -6.1385  -5.1804  -4.5979  -3.6062
    -3.0577  -2.1726  -0.0475   0.5645   0.7874   2.4026

          k = 0.2273 0.3654 0.0000 ( 17965 PWs)   bands (ev):

   -14.7761 -14.2974  -9.7475  -9.2592  -6.1795  -5.0731  -4.9041  -4.0097
    -3.6349  -2.6411   0.3493   1.0014   1.6170   1.9847

          k = 0.2273-0.4872 0.0000 ( 17988 PWs)   bands (ev):

   -14.4621 -14.4620  -9.6264  -9.6264  -5.6679  -5.6679  -4.5917  -4.5917
    -3.2849  -3.2848   1.0911   1.0911   1.6596   1.6597

          k = 0.3410 0.0000 0.0000 ( 17992 PWs)   bands (ev):

   -15.1212 -14.5326  -9.8987  -9.2904  -4.9419  -4.0776  -3.9938  -3.3605
    -2.8377  -1.6777  -0.4744   0.5016   0.5325   0.7726

          k = 0.3410 0.1218 0.0000 ( 18007 PWs)   bands (ev):

   -15.0473 -14.4885  -9.8304  -9.2544  -5.1389  -4.8922  -4.1553  -3.8310
    -2.3077  -2.1841  -0.0638   0.2549   0.6573   1.4117

          k = 0.3410 0.2436 0.0000 ( 17976 PWs)   bands (ev):

   -14.8463 -14.3866  -9.6668  -9.2010  -6.1676  -5.2079  -4.8166  -3.9601
    -3.4141  -2.5464   0.4938   1.0445   1.7777   2.0012

          k = 0.3410 0.3654 0.0000 ( 17993 PWs)   bands (ev):

   -14.5854 -14.3148  -9.5128  -9.2495  -6.5942  -5.8058  -5.1596  -4.4818
    -3.7397  -3.1349   1.0737   1.7662   2.0153   3.0933

          k = 0.3410-0.4872 0.0000 ( 18034 PWs)   bands (ev):

   -14.3761 -14.3760  -9.3894  -9.3894  -6.3428  -6.3427  -5.0980  -5.0979
    -3.4876  -3.4875   1.4383   1.4384   2.9523   2.9523

          k =-0.4547 0.0000 0.0000 ( 17952 PWs)   bands (ev):

   -14.7861 -14.7860  -9.7719  -9.7718  -4.4258  -4.4257  -3.6322  -3.6321
    -2.1230  -2.1230  -0.1049  -0.1049   0.5619   0.5620

          k =-0.4547 0.1218 0.0000 ( 18006 PWs)   bands (ev):

   -14.7279 -14.7278  -9.6971  -9.6971  -4.6490  -4.6489  -4.3302  -4.3301
    -2.1852  -2.1851   0.0182   0.0183   1.2458   1.2458

          k =-0.4547 0.2436 0.0000 ( 17982 PWs)   bands (ev):

   -14.5781 -14.5781  -9.5112  -9.5111  -5.7691  -5.7690  -4.4445  -4.4445
    -3.1324  -3.1323   1.2300   1.2300   1.8234   1.8234

          k =-0.4547 0.3654 0.0000 ( 18016 PWs)   bands (ev):

   -14.4129 -14.4129  -9.3334  -9.3334  -6.4388  -6.4387  -4.9729  -4.9729
    -3.4939  -3.4938   1.4640   1.4640   3.1353   3.1353

          k =-0.4547-0.4872 0.0000 ( 18036 PWs)   bands (ev):

   -14.3390 -14.3389  -9.2741  -9.2740  -6.5891  -6.5890  -5.3485  -5.3485
    -3.5016  -3.5015   1.4887   1.4888   3.3770   3.3771

     the Fermi energy is    -1.0921 ev

!    total energy              =    -706.94767121 Ry

     total all-electron energy =    -18116.436011 Ry
     estimated scf accuracy    <          7.6E-11 Ry
     smearing contrib. (-TS)   =      -0.00000707 Ry
     internal energy E=F+TS    =    -706.94766414 Ry

     The total energy is F=E-TS. E is the sum of the following terms:
     one-electron contribution =    -289.33297171 Ry
     hartree contribution      =     149.65575405 Ry
     xc contribution           =     -25.84217868 Ry
     ewald contribution        =     102.94607476 Ry
     one-center paw contrib.   =    -644.37434257 Ry

     convergence has been achieved in  11 iterations

     negative rho (up, down):  1.974E-04 0.000E+00

     Forces acting on atoms (cartesian axes, Ry/au):

     atom    1 type  1   force =    -0.00000168    0.00000000   -0.00000659
     atom    2 type  1   force =     0.00000478    0.00000000    0.00000718
     atom    3 type  2   force =    -0.00000048    0.00000000   -0.00000462
     atom    4 type  2   force =    -0.00000262    0.00000000    0.00000403

     Total force =     0.000013     Total SCF correction =     0.000017
     SCF correction compared to forces is large: reduce conv_thr to get better values


     Computing stress (Cartesian axis) and pressure


     negative rho (up, down):  1.974E-04 0.000E+00
          total   stress  (Ry/bohr**3)                   (kbar)     P=       -0.01
  -0.00000008   0.00000000   0.00000000           -0.01        0.00        0.00
   0.00000000  -0.00000005   0.00000000            0.00       -0.01        0.00
   0.00000000   0.00000000  -0.00000011            0.00        0.00       -0.02


     Writing output data file ./out/pwscf.save/
 
     init_run     :      1.29s CPU      1.45s WALL (       2 calls)
     electrons    :     24.77s CPU     26.51s WALL (       5 calls)
     update_pot   :      1.07s CPU      1.07s WALL (       3 calls)
     forces       :      1.04s CPU      1.04s WALL (       5 calls)
     stress       :      1.76s CPU      1.80s WALL (       5 calls)

     Called by init_run:
     wfcinit      :      0.60s CPU      0.63s WALL (       2 calls)
     potinit      :      0.16s CPU      0.19s WALL (       2 calls)
     hinit0       :      0.41s CPU      0.48s WALL (       2 calls)

     Called by electrons:
     c_bands      :     18.77s CPU     19.66s WALL (      41 calls)
     sum_band     :      3.19s CPU      3.26s WALL (      41 calls)
     v_of_rho     :      1.18s CPU      1.19s WALL (      42 calls)
     newd         :      0.36s CPU      0.38s WALL (      42 calls)
     PAW_pot      :      0.94s CPU      0.96s WALL (      45 calls)
     mix_rho      :      0.09s CPU      0.09s WALL (      41 calls)

     Called by c_bands:
     init_us_2    :      0.25s CPU      0.27s WALL (    2425 calls)
     cegterg      :     17.87s CPU     18.40s WALL (    1025 calls)

     Called by *egterg:
     cdiaghg      :      0.61s CPU      0.63s WALL (    3263 calls)
     h_psi        :     14.06s CPU     14.57s WALL (    3488 calls)
     s_psi        :      0.55s CPU      0.56s WALL (    3488 calls)
     g_psi        :      0.04s CPU      0.04s WALL (    2413 calls)

     Called by h_psi:
     h_psi:calbec :      1.14s CPU      1.18s WALL (    3488 calls)
     vloc_psi     :     12.34s CPU     12.81s WALL (    3488 calls)
     add_vuspsi   :      0.54s CPU      0.55s WALL (    3488 calls)

     General routines
     calbec       :      1.83s CPU      1.88s WALL (    5213 calls)
     fft          :      1.88s CPU      1.97s WALL (     668 calls)
     ffts         :      0.16s CPU      0.17s WALL (      83 calls)
     fftw         :     14.03s CPU     14.52s WALL (   87826 calls)
     interpolate  :      0.36s CPU      0.36s WALL (      42 calls)
 
     Parallel routines
     fft_scatt_xy :      0.71s CPU      0.72s WALL (   88577 calls)
     fft_scatt_yz :     10.60s CPU     11.01s WALL (   88577 calls)
 
     PWSCF        :     31.76s CPU     38.11s WALL

 
   This run was terminated on:   0:22:46   1May2021            

=------------------------------------------------------------------------------=
   JOB DONE.
=------------------------------------------------------------------------------=
